
#(C) 2024 by FIZ Karlsruhe - Leibniz Institute for Information Infrastructure.  All rights reserved.
data_59624-ICSD
_database_code_ICSD 59624
_audit_creation_date 2005-04-01
_chemical_name_common 'Germanium oxide'
_chemical_formula_structural 'Ge O2'
_chemical_formula_sum 'Ge1 O2'
_chemical_name_structure_type Quartz(low)#SiO2
_exptl_crystal_density_diffrn 4.29
_diffrn_ambient_temperature 294.
_citation_title

;
A neutron diffraction study of the thermal stability of the alpha-quartz-type
structure in germanium dioxide
;
loop_
_citation_id
_citation_journal_full
_citation_year
_citation_journal_volume
_citation_page_first
_citation_page_last
_citation_journal_id_ASTM
primary 'Journal of Solid State Chemistry' 2002 166 434 441 JSSCBI
loop_
_citation_author_citation_id
_citation_author_name
primary 'Haines, J.'
primary 'Cambon, O.'
primary 'Philippot, E.'
primary 'Chapon, L.'
primary 'Hull, S.'
_cell_length_a 4.98503(3)
_cell_length_b 4.98503(3)
_cell_length_c 5.64711(4)
_cell_angle_alpha 90.
_cell_angle_beta 90.
_cell_angle_gamma 120.
_cell_volume 121.53
_cell_formula_units_Z 3
_space_group_name_H-M_alt 'P 31 2 1'
_space_group_IT_number 152
loop_
_space_group_symop_id
_space_group_symop_operation_xyz
1 'x-y, -y, -z+2/3'
2 '-x, -x+y, -z+1/3'
3 'y, x, -z'
4 '-x+y, -x, z+2/3'
5 '-y, x-y, z+1/3'
6 'x, y, z'
loop_
_atom_type_symbol
_atom_type_oxidation_number
Ge4+ 4
O2- -2
loop_
_atom_site_label
_atom_site_type_symbol
_atom_site_symmetry_multiplicity
_atom_site_Wyckoff_symbol
_atom_site_fract_x
_atom_site_fract_y
_atom_site_fract_z
_atom_site_U_iso_or_equiv
_atom_site_occupancy
Ge1 Ge4+ 3 a 0.4511(1) 0 0.3333 0.0057(1) 1.
O1 O2- 6 c 0.3974(1) 0.3022(1) 0.2425(1) 0.0107(2) 1.
loop_
_atom_site_aniso_label
_atom_site_aniso_type_symbol
_atom_site_aniso_U_11
_atom_site_aniso_U_22
_atom_site_aniso_U_33
_atom_site_aniso_U_12
_atom_site_aniso_U_13
_atom_site_aniso_U_23
Ge1 Ge4+ 0.0063(1) 0.0063(2) 0.0046(1) 0 0 -0.0004(1)
O1 O2- 0.0155(2) 0.0109(2) 0.0093(1) 0.0093(1) 0.0043(1) 0.0040(1)
#End of TTdata_59624-ICSD